                         Program Version 4.2.1 -  RELEASE  -
|  1> !HF-3c CPCM KDIIS SmallPrint
|  2> %PAL NPROCS 15 END
|  3> %maxcore 10000
|  4> %CPCM
|  5> SMD TRUE
|  6> SMDSOLVENT "WATER"
|  7> END
|  8>
|  9> %scf
| 10> SCFmode Direct
| 11> maxiter 10000
| 12>
| 13> end
| 14>
| 15> %geom
| 16>
| 17> Constraints
| 18> {C 2 C}
| 19> {C 21 C}
| 20> {C 43 C}
| 21> {C 54 C}
| 22> {C 75 C}
| 23> {C 92 C}
| 24> {C 103 C}
| 25> {C 120 C}
| 26> {C 127 C}
| 27>
| 28> end
| 29>
| 30> maxiter 10000
| 31>
| 32> end
| 33>
| 34> * xyz 0 1
| 35>    N        0.00000         0.00000         0.00000
| 36>    C        1.46145         0.00000         0.00000
| 37>    C        1.94774         0.00000         1.45615
| 38>    O        1.18426         0.00000         2.41946
| 39>    C        2.04411         1.20336         -0.76878
| 40>    H        2.63381         1.85004         -0.10703
| 41>    H        1.24387         1.83827         -1.17112
| 42>    C        2.90609         0.76454         -1.90397
| 43>    N        2.40386         0.09306         -2.99477
| 44>    C        3.45453         -0.18863         -3.81870
| 45>    H        3.33445         -0.73115         -4.74678
| 46>    N        4.58505         0.27510         -3.33539
| 47>    C        4.25427         0.88487         -2.15432
| 48>    H        5.00749         1.36841         -1.54511
| 49>    H        1.43192         -0.17656         -3.13345
| 50>    H        -0.46323         0.13431         0.89571
| 51>    H        1.77077         -0.95781         -0.43895
| 52>    H        -0.34000         0.08381         -0.95801
| 53>    H        -0.34000         0.94706         -0.16699
| 54>    N        3.26069         -0.00000         1.72406
| 55>    C        3.72296         0.00022         3.10830
| 56>    C        5.25957         0.00016         3.05115
| 57>    O        5.89478         -0.00005         1.99805
| 58>    C        3.17221         -1.22220         3.85582
| 59>    C        3.49760         -1.23091         5.35214
| 60>    C        2.76820         -2.36936         6.07164
| 61>    C        3.16412         -2.43597         7.54599
| 62>    N        2.43343         -3.50207         8.21876
| 63>    H        3.37443         0.85767         3.64516
| 64>    H        3.56358         -2.10444         3.39388
| 65>    H        2.11168         -1.22213         3.71379
| 66>    H        3.21324         -0.29072         5.77650
| 67>    H        4.55447         -1.35132         5.46806
| 68>    H        3.00258         -3.29454         5.58790
| 69>    H        1.71448         -2.20937         5.97690
| 70>    H        2.94242         -1.49942         8.01356
| 71>    H        4.21673         -2.61502         7.61570
| 72>    H        2.75555         -3.57872         9.18352
| 73>    H        2.64374         -4.39381         7.77046
| 74>    H        1.43137         -3.32635         8.14527
| 75>    H        3.96942         -0.42893         1.12898
| 76>    N        5.97225         0.00033         4.18591
| 77>    C        7.43248         0.00005         4.13160
| 78>    C        7.94014         0.00034         5.58431
| 79>    O        7.18936         0.00073         6.55905
| 80>    H        7.75894         -0.93678         3.66280
| 81>    C        7.99408         1.20586         3.36645
| 82>    H        7.51616         1.30516         2.38758
| 83>    H        7.83043         2.13745         3.92113
| 84>    O        9.40259         1.06292         3.14691
| 85>    H        9.64040         1.72060         2.46705
| 86>    H        5.54956         0.04275         5.11011
| 87>    N        9.25668         0.00016         5.83396
| 88>    C        9.73887         0.00066         7.21380
| 89>    C        11.27545         0.00030         7.14375
| 90>    O        11.89656         -0.00030         6.08139
| 91>    C        9.22038         -1.22365         7.98649
| 92>    H        8.18774         -1.45562         7.69337
| 93>    H        9.80251         -2.11628         7.72139
| 94>    C        9.23236         -1.03113         9.48570
| 95>    C        10.21965         -1.63038         10.27945
| 96>    H        10.98490         -2.26071         9.83089
| 97>    C        10.23608         -1.42149         11.65890
| 98>    H        11.00299         -1.88363         12.27411
| 99>    C        9.26082         -0.62546         12.24768
|100>    C        8.26661         -0.03030         11.47919
|101>    H        7.49712         0.58791         11.93113
|102>    C        8.25449         -0.23204         10.09779
|103>    H        7.47284         0.23301         9.49714
|104>    O        9.31421         -0.45176         13.59873
|105>    H        8.54531         0.07476         13.87320
|106>    H        9.41051         0.94008         7.67521
|107>    H        9.91624         -0.27036         5.10896
|108>    N        11.99760         0.00063         8.27251
|109>    C        13.45476         0.00007         8.20609
|110>    C        13.95693         0.00066         9.65904
|111>    O        13.20531         0.00144         10.63178
|112>    C        13.95963         1.22796         7.43592
|113>    C        15.42479         1.09729         7.02467
|114>    S        15.93159         2.55176         6.05158
|115>    C        17.61336         2.03165         5.63704
|116>    H        13.77397         -0.92604         7.71338
|117>    H        13.81971         2.12922         8.04841
|118>    H        13.34581         1.36127         6.53508
|119>    H        15.56593         0.19770         6.41659
|120>    H        16.07404         1.03565         7.90157
|121>    H        18.19836         1.87274         6.54660
|122>    H        18.09656         2.81308         5.04461
|123>    H        17.59201         1.11169         5.04705
|124>    H        11.56499         0.44517         9.07745
|125>    N        15.27261         0.00031         9.91320
|126>    C        15.74994         0.00109         11.29428
|127>    C        17.28792         0.00045         11.24234
|128>    O        17.92526         -0.00054         10.18991
|129>    H        15.43110         0.93820         11.76775
|130>    C        15.23935         -1.20426         12.09506
|131>    H        14.15389         -1.30337         12.00346
|132>    H        15.69714         -2.13611         11.74234
|133>    O        15.54398         -1.06078         13.48760
|134>    H        14.99596         -1.71814         13.95542
|135>    H        15.98144         -0.04257         9.18497
|136>    N        17.99671         0.00097         12.37954
|137>    C        19.45455         0.00013         12.33030
|138>    C        19.93955         0.00103         13.78908
|139>    O        19.17651         0.00221         14.75288
|140>    C        19.96868         1.22774         11.56581
|141>    C        21.43857         1.09670         11.17190
|142>    S        21.95706         2.55082         10.20447
|143>    C        23.64352         2.03031         9.80992
|144>    H        19.77939         -0.92616         11.84164
|145>    H        19.82171         2.12918         12.17637
|146>    H        19.36556         1.36090         10.65776
|147>    H        21.58672         0.19692         10.56577
|148>    H        22.07742         1.03518         12.05642
|149>    H        24.21772         1.87154         10.72636
|150>    H        24.13380         2.81150         9.22303
|151>    H        23.62896         1.11019         9.21997
|152>    H        17.55472         0.44580         13.17920
|153>    N        21.25214         0.00053         14.05873
|154>    C        21.70858         0.00159         15.43160
|155>    C        23.23340         0.00075         15.47420
|156>    O        23.94107         -0.00063         14.46994
|157>    H        21.32450         0.89828         15.92968
|158>    H        21.32261         -0.89071         15.93259
|159>    H        21.95686         0.00194         13.32678
|160>    N        23.87073         0.00151         16.65293
|161>    C        25.33440         0.00049         16.69382
|162>    C        25.71735         0.00177         18.18689
|163>    O        24.88306         0.00333         19.09115
|164>    C        25.90771         1.22549         15.98265
|165>    C        27.35303         1.02552         15.62962
|166>    O        28.07329         0.09933         15.96669
|167>    O        27.84129         2.04586         14.89888
|168>    H        25.67867         -0.93683         16.24036
|169>    H        25.82221         2.11895         16.61154
|170>    H        25.36857         1.40806         15.04585
|171>    H        23.38192         0.20172         17.52275
|172>    O        27.03705         0.00111         18.47600
|173> *
|174>
|175>                          ****END OF INPUT****

CARTESIAN COORDINATES (ANGSTROEM)
---------------------------------
  N      0.000000    0.000000    0.000000
  C      1.461450    0.000000    0.000000
  C      1.947740    0.000000    1.456150
  O      1.184260    0.000000    2.419460
  C      2.044110    1.203360   -0.768780
  H      2.633810    1.850040   -0.107030
  H      1.243870    1.838270   -1.171120
  C      2.906090    0.764540   -1.903970
  N      2.403860    0.093060   -2.994770
  C      3.454530   -0.188630   -3.818700
  H      3.334450   -0.731150   -4.746780
  N      4.585050    0.275100   -3.335390
  C      4.254270    0.884870   -2.154320
  H      5.007490    1.368410   -1.545110
  H      1.431920   -0.176560   -3.133450
  H     -0.463230    0.134310    0.895710
  H      1.770770   -0.957810   -0.438950
  H     -0.340000    0.083810   -0.958010
  H     -0.340000    0.947060   -0.166990
  N      3.260690   -0.000000    1.724060
  C      3.722960    0.000220    3.108300
  C      5.259570    0.000160    3.051150
  O      5.894780   -0.000050    1.998050
  C      3.172210   -1.222200    3.855820
  C      3.497600   -1.230910    5.352140
  C      2.768200   -2.369360    6.071640
  C      3.164120   -2.435970    7.545990
  N      2.433430   -3.502070    8.218760
  H      3.374430    0.857670    3.645160
  H      3.563580   -2.104440    3.393880
  H      2.111680   -1.222130    3.713790
  H      3.213240   -0.290720    5.776500
  H      4.554470   -1.351320    5.468060
  H      3.002580   -3.294540    5.587900
  H      1.714480   -2.209370    5.976900
  H      2.942420   -1.499420    8.013560
  H      4.216730   -2.615020    7.615700
  H      2.755550   -3.578720    9.183520
  H      2.643740   -4.393810    7.770460
  H      1.431370   -3.326350    8.145270
  H      3.969420   -0.428930    1.128980
  N      5.972250    0.000330    4.185910
  C      7.432480    0.000050    4.131600
  C      7.940140    0.000340    5.584310
  O      7.189360    0.000730    6.559050
  H      7.758940   -0.936780    3.662800
  C      7.994080    1.205860    3.366450
  H      7.516160    1.305160    2.387580
  H      7.830430    2.137450    3.921130
  O      9.402590    1.062920    3.146910
  H      9.640400    1.720600    2.467050
  H      5.549560    0.042750    5.110110
  N      9.256680    0.000160    5.833960
  C      9.738870    0.000660    7.213800
  C     11.275450    0.000300    7.143750
  O     11.896560   -0.000300    6.081390
  C      9.220380   -1.223650    7.986490
  H      8.187740   -1.455620    7.693370
  H      9.802510   -2.116280    7.721390
  C      9.232360   -1.031130    9.485700
  C     10.219650   -1.630380   10.279450
  H     10.984900   -2.260710    9.830890
  C     10.236080   -1.421490   11.658900
  H     11.002990   -1.883630   12.274110
  C      9.260820   -0.625460   12.247680
  C      8.266610   -0.030300   11.479190
  H      7.497120    0.587910   11.931130
  C      8.254490   -0.232040   10.097790
  H      7.472840    0.233010    9.497140
  O      9.314210   -0.451760   13.598730
  H      8.545310    0.074760   13.873200
  H      9.410510    0.940080    7.675210
  H      9.916240   -0.270360    5.108960
  N     11.997600    0.000630    8.272510
  C     13.454760    0.000070    8.206090
  C     13.956930    0.000660    9.659040
  O     13.205310    0.001440   10.631780
  C     13.959630    1.227960    7.435920
  C     15.424790    1.097290    7.024670
  S     15.931590    2.551760    6.051580
  C     17.613360    2.031650    5.637040
  H     13.773970   -0.926040    7.713380
  H     13.819710    2.129220    8.048410
  H     13.345810    1.361270    6.535080
  H     15.565930    0.197700    6.416590
  H     16.074040    1.035650    7.901570
  H     18.198360    1.872740    6.546600
  H     18.096560    2.813080    5.044610
  H     17.592010    1.111690    5.047050
  H     11.564990    0.445170    9.077450
  N     15.272610    0.000310    9.913200
  C     15.749940    0.001090   11.294280
  C     17.287920    0.000450   11.242340
  O     17.925260   -0.000540   10.189910
  H     15.431100    0.938200   11.767750
  C     15.239350   -1.204260   12.095060
  H     14.153890   -1.303370   12.003460
  H     15.697140   -2.136110   11.742340
  O     15.543980   -1.060780   13.487600
  H     14.995960   -1.718140   13.955420
  H     15.981440   -0.042570    9.184970
  N     17.996710    0.000970   12.379540
  C     19.454550    0.000130   12.330300
  C     19.939550    0.001030   13.789080
  O     19.176510    0.002210   14.752880
  C     19.968680    1.227740   11.565810
  C     21.438570    1.096700   11.171900
  S     21.957060    2.550820   10.204470
  C     23.643520    2.030310    9.809920
  H     19.779390   -0.926160   11.841640
  H     19.821710    2.129180   12.176370
  H     19.365560    1.360900   10.657760
  H     21.586720    0.196920   10.565770
  H     22.077420    1.035180   12.056420
  H     24.217720    1.871540   10.726360
  H     24.133800    2.811500    9.223030
  H     23.628960    1.110190    9.219970
  H     17.554720    0.445800   13.179200
  N     21.252140    0.000530   14.058730
  C     21.708580    0.001590   15.431600
  C     23.233400    0.000750   15.474200
  O     23.941070   -0.000630   14.469940
  H     21.324500    0.898280   15.929680
  H     21.322610   -0.890710   15.932590
  H     21.956860    0.001940   13.326780
  N     23.870730    0.001510   16.652930
  C     25.334400    0.000490   16.693820
  C     25.717350    0.001770   18.186890
  O     24.883060    0.003330   19.091150
  C     25.907710    1.225490   15.982650
  C     27.353030    1.025520   15.629620
  O     28.073290    0.099330   15.966690
  O     27.841290    2.045860   14.898880
  H     25.678670   -0.936830   16.240360
  H     25.822210    2.118950   16.611540
  H     25.368570    1.408060   15.045850
  H     23.381920    0.201720   17.522750
  O     27.037050    0.001110   18.476000

 Total Charge           Charge          ....    0
 Multiplicity           Mult            ....    1
 Number of Electrons    NEL             ....  560
 Basis Dimension        Dim             ....  444

ORBITAL ENERGIES
----------------

  NO   OCC          E(Eh)            E(eV)
   0   2.0000     -91.263103     -2483.3953
   1   2.0000     -91.262342     -2483.3746
   2   2.0000     -20.348725      -553.7170
   3   2.0000     -20.305073      -552.5291
   4   2.0000     -20.296229      -552.2885
   5   2.0000     -20.294132      -552.2314
   6   2.0000     -20.275114      -551.7139
   7   2.0000     -20.274620      -551.7005
   8   2.0000     -20.273797      -551.6781
   9   2.0000     -20.271242      -551.6085
  10   2.0000     -20.270529      -551.5891
  11   2.0000     -20.266151      -551.4700
  12   2.0000     -20.249709      -551.0226
  13   2.0000     -20.141312      -548.0730
  14   2.0000     -20.132386      -547.8301
  15   2.0000     -20.039467      -545.3016
  16   2.0000     -20.012630      -544.5714
  17   2.0000     -15.629411      -425.2979
  18   2.0000     -15.615124      -424.9091
  19   2.0000     -15.504095      -421.8879
  20   2.0000     -15.451148      -420.4471
  21   2.0000     -15.442610      -420.2148
  22   2.0000     -15.438063      -420.0911
  23   2.0000     -15.436324      -420.0437
  24   2.0000     -15.435041      -420.0088
  25   2.0000     -15.434399      -419.9914
  26   2.0000     -15.434133      -419.9841
  27   2.0000     -15.407228      -419.2520
  28   2.0000     -15.389944      -418.7817
  29   2.0000     -11.364930      -309.2555
  30   2.0000     -11.339234      -308.5562
  31   2.0000     -11.333061      -308.3883
  32   2.0000     -11.332511      -308.3733
  33   2.0000     -11.332242      -308.3660
  34   2.0000     -11.332165      -308.3639
  35   2.0000     -11.331150      -308.3363
  36   2.0000     -11.320861      -308.0563
  37   2.0000     -11.299390      -307.4720
  38   2.0000     -11.259602      -306.3893
  39   2.0000     -11.257367      -306.3285
  40   2.0000     -11.248781      -306.0949
  41   2.0000     -11.247123      -306.0498
  42   2.0000     -11.245123      -305.9954
  43   2.0000     -11.242767      -305.9313
  44   2.0000     -11.242578      -305.9261
  45   2.0000     -11.241917      -305.9081
  46   2.0000     -11.236166      -305.7516
  47   2.0000     -11.230789      -305.6053
  48   2.0000     -11.228042      -305.5306
  49   2.0000     -11.225850      -305.4709
  50   2.0000     -11.224028      -305.4213
  51   2.0000     -11.222193      -305.3714
  52   2.0000     -11.221553      -305.3540
  53   2.0000     -11.220026      -305.3124
  54   2.0000     -11.183893      -304.3292
  55   2.0000     -11.183748      -304.3253
  56   2.0000     -11.183194      -304.3102
  57   2.0000     -11.181563      -304.2658
  58   2.0000     -11.178443      -304.1809
  59   2.0000     -11.177163      -304.1461
  60   2.0000     -11.175959      -304.1133
  61   2.0000     -11.174529      -304.0744
  62   2.0000     -11.170705      -303.9703
  63   2.0000     -11.169947      -303.9497
  64   2.0000     -11.169765      -303.9447
  65   2.0000     -11.169396      -303.9347
  66   2.0000     -11.169061      -303.9256
  67   2.0000     -11.168742      -303.9169
  68   2.0000     -11.168514      -303.9107
  69   2.0000     -11.167571      -303.8851
  70   2.0000     -11.165177      -303.8199
  71   2.0000     -11.124518      -302.7135
  72   2.0000      -8.882115      -241.6946
  73   2.0000      -8.881333      -241.6734
  74   2.0000      -6.531563      -177.7329
  75   2.0000      -6.530783      -177.7116
  76   2.0000      -6.529790      -177.6846
  77   2.0000      -6.529009      -177.6634
  78   2.0000      -6.527039      -177.6097
  79   2.0000      -6.526256      -177.5885
  80   2.0000      -1.427738       -38.8507
  81   2.0000      -1.405598       -38.2483
  82   2.0000      -1.403923       -38.2027
  83   2.0000      -1.400441       -38.1079
  84   2.0000      -1.394435       -37.9445
  85   2.0000      -1.391825       -37.8735
  86   2.0000      -1.388819       -37.7917
  87   2.0000      -1.386922       -37.7401
  88   2.0000      -1.380207       -37.5573
  89   2.0000      -1.374916       -37.4134
  90   2.0000      -1.358802       -36.9749
  91   2.0000      -1.344325       -36.5809
  92   2.0000      -1.335709       -36.3465
  93   2.0000      -1.333475       -36.2857
  94   2.0000      -1.311718       -35.6936
  95   2.0000      -1.300853       -35.3980
  96   2.0000      -1.243139       -33.8275
  97   2.0000      -1.229876       -33.4666
  98   2.0000      -1.228827       -33.4381
  99   2.0000      -1.228041       -33.4167
 100   2.0000      -1.224202       -33.3122
 101   2.0000      -1.223503       -33.2932
 102   2.0000      -1.221480       -33.2382
 103   2.0000      -1.196504       -32.5585
 104   2.0000      -1.176324       -32.0094
 105   2.0000      -1.162556       -31.6347
 106   2.0000      -1.140732       -31.0409
 107   2.0000      -1.135203       -30.8905
 108   2.0000      -1.123073       -30.5604
 109   2.0000      -1.107406       -30.1340
 110   2.0000      -1.102531       -30.0014
 111   2.0000      -1.096589       -29.8397
 112   2.0000      -1.075649       -29.2699
 113   2.0000      -1.060848       -28.8671
 114   2.0000      -1.050663       -28.5900
 115   2.0000      -1.035908       -28.1885
 116   2.0000      -1.031220       -28.0609
 117   2.0000      -1.024998       -27.8916
 118   2.0000      -1.024030       -27.8653
 119   2.0000      -1.019853       -27.7516
 120   2.0000      -1.011758       -27.5313
 121   2.0000      -0.991298       -26.9746
 122   2.0000      -0.980522       -26.6814
 123   2.0000      -0.969244       -26.3745
 124   2.0000      -0.955304       -25.9951
 125   2.0000      -0.945924       -25.7399
 126   2.0000      -0.937273       -25.5045
 127   2.0000      -0.901630       -24.5346
 128   2.0000      -0.892598       -24.2888
 129   2.0000      -0.883737       -24.0477
 130   2.0000      -0.877559       -23.8796
 131   2.0000      -0.875475       -23.8229
 132   2.0000      -0.862134       -23.4599
 133   2.0000      -0.854322       -23.2473
 134   2.0000      -0.851079       -23.1590
 135   2.0000      -0.844726       -22.9862
 136   2.0000      -0.842115       -22.9151
 137   2.0000      -0.817446       -22.2438
 138   2.0000      -0.813115       -22.1260
 139   2.0000      -0.801522       -21.8105
 140   2.0000      -0.799530       -21.7563
 141   2.0000      -0.799201       -21.7474
 142   2.0000      -0.798076       -21.7168
 143   2.0000      -0.795310       -21.6415
 144   2.0000      -0.792631       -21.5686
 145   2.0000      -0.786910       -21.4129
 146   2.0000      -0.782432       -21.2911
 147   2.0000      -0.777423       -21.1548
 148   2.0000      -0.773886       -21.0585
 149   2.0000      -0.771000       -20.9800
 150   2.0000      -0.769215       -20.9314
 151   2.0000      -0.766881       -20.8679
 152   2.0000      -0.761706       -20.7271
 153   2.0000      -0.754994       -20.5444
 154   2.0000      -0.751338       -20.4449
 155   2.0000      -0.738693       -20.1008
 156   2.0000      -0.720671       -19.6104
 157   2.0000      -0.713582       -19.4175
 158   2.0000      -0.705776       -19.2051
 159   2.0000      -0.697041       -18.9674
 160   2.0000      -0.695746       -18.9322
 161   2.0000      -0.692197       -18.8356
 162   2.0000      -0.688112       -18.7245
 163   2.0000      -0.683994       -18.6124
 164   2.0000      -0.679679       -18.4950
 165   2.0000      -0.677160       -18.4265
 166   2.0000      -0.673729       -18.3331
 167   2.0000      -0.672271       -18.2934
 168   2.0000      -0.668121       -18.1805
 169   2.0000      -0.660625       -17.9765
 170   2.0000      -0.660055       -17.9610
 171   2.0000      -0.654784       -17.8176
 172   2.0000      -0.650229       -17.6936
 173   2.0000      -0.648475       -17.6459
 174   2.0000      -0.646728       -17.5984
 175   2.0000      -0.642062       -17.4714
 176   2.0000      -0.641734       -17.4625
 177   2.0000      -0.636732       -17.3264
 178   2.0000      -0.634752       -17.2725
 179   2.0000      -0.632666       -17.2157
 180   2.0000      -0.629214       -17.1218
 181   2.0000      -0.628402       -17.0997
 182   2.0000      -0.622629       -16.9426
 183   2.0000      -0.620038       -16.8721
 184   2.0000      -0.619270       -16.8512
 185   2.0000      -0.614850       -16.7309
 186   2.0000      -0.614470       -16.7206
 187   2.0000      -0.613380       -16.6909
 188   2.0000      -0.607775       -16.5384
 189   2.0000      -0.606610       -16.5067
 190   2.0000      -0.602588       -16.3973
 191   2.0000      -0.598372       -16.2825
 192   2.0000      -0.593134       -16.1400
 193   2.0000      -0.592185       -16.1142
 194   2.0000      -0.590060       -16.0563
 195   2.0000      -0.589308       -16.0359
 196   2.0000      -0.587503       -15.9868
 197   2.0000      -0.585451       -15.9309
 198   2.0000      -0.582339       -15.8463
 199   2.0000      -0.582180       -15.8419
 200   2.0000      -0.581068       -15.8117
 201   2.0000      -0.578848       -15.7513
 202   2.0000      -0.578055       -15.7297
 203   2.0000      -0.575005       -15.6467
 204   2.0000      -0.574214       -15.6252
 205   2.0000      -0.572163       -15.5693
 206   2.0000      -0.571135       -15.5414
 207   2.0000      -0.564332       -15.3562
 208   2.0000      -0.562992       -15.3198
 209   2.0000      -0.558843       -15.2069
 210   2.0000      -0.556819       -15.1518
 211   2.0000      -0.556243       -15.1361
 212   2.0000      -0.554733       -15.0951
 213   2.0000      -0.552040       -15.0218
 214   2.0000      -0.549356       -14.9487
 215   2.0000      -0.545242       -14.8368
 216   2.0000      -0.544222       -14.8090
 217   2.0000      -0.541204       -14.7269
 218   2.0000      -0.538390       -14.6503
 219   2.0000      -0.532874       -14.5002
 220   2.0000      -0.531424       -14.4608
 221   2.0000      -0.529426       -14.4064
 222   2.0000      -0.528835       -14.3903
 223   2.0000      -0.527814       -14.3625
 224   2.0000      -0.523131       -14.2351
 225   2.0000      -0.515492       -14.0272
 226   2.0000      -0.515030       -14.0147
 227   2.0000      -0.511787       -13.9264
 228   2.0000      -0.507619       -13.8130
 229   2.0000      -0.500360       -13.6155
 230   2.0000      -0.497980       -13.5507
 231   2.0000      -0.496344       -13.5062
 232   2.0000      -0.492046       -13.3893
 233   2.0000      -0.491978       -13.3874
 234   2.0000      -0.488833       -13.3018
 235   2.0000      -0.486873       -13.2485
 236   2.0000      -0.485090       -13.2000
 237   2.0000      -0.480772       -13.0825
 238   2.0000      -0.479362       -13.0441
 239   2.0000      -0.478771       -13.0280
 240   2.0000      -0.475060       -12.9270
 241   2.0000      -0.472928       -12.8690
 242   2.0000      -0.470618       -12.8062
 243   2.0000      -0.468448       -12.7471
 244   2.0000      -0.467498       -12.7213
 245   2.0000      -0.449772       -12.2389
 246   2.0000      -0.446267       -12.1435
 247   2.0000      -0.435452       -11.8493
 248   2.0000      -0.432091       -11.7578
 249   2.0000      -0.430729       -11.7207
 250   2.0000      -0.422831       -11.5058
 251   2.0000      -0.421975       -11.4825
 252   2.0000      -0.419662       -11.4196
 253   2.0000      -0.407536       -11.0896
 254   2.0000      -0.406010       -11.0481
 255   2.0000      -0.404089       -10.9958
 256   2.0000      -0.403884       -10.9902
 257   2.0000      -0.402551       -10.9540
 258   2.0000      -0.398855       -10.8534
 259   2.0000      -0.395405       -10.7595
 260   2.0000      -0.390445       -10.6246
 261   2.0000      -0.385112       -10.4794
 262   2.0000      -0.378631       -10.3031
 263   2.0000      -0.375655       -10.2221
 264   2.0000      -0.373987       -10.1767
 265   2.0000      -0.372721       -10.1423
 266   2.0000      -0.369339       -10.0502
 267   2.0000      -0.367687       -10.0053
 268   2.0000      -0.354719        -9.6524
 269   2.0000      -0.353483        -9.6187
 270   2.0000      -0.331741        -9.0271
 271   2.0000      -0.326887        -8.8950
 272   2.0000      -0.326010        -8.8712
 273   2.0000      -0.313622        -8.5341
 274   2.0000      -0.310261        -8.4426
 275   2.0000      -0.300179        -8.1683
 276   2.0000      -0.283023        -7.7015
 277   2.0000      -0.276486        -7.5236
 278   2.0000      -0.263852        -7.1798
 279   2.0000      -0.252985        -6.8841
 280   0.0000       0.180054         4.8995
 281   0.0000       0.188349         5.1252
 282   0.0000       0.194908         5.3037
 283   0.0000       0.219909         5.9840
 284   0.0000       0.220787         6.0079

MULLIKEN ATOMIC CHARGES
-----------------------
   0 N :   -0.535131
   1 C :   -0.016668
   2 C :    0.417419
   3 O :   -0.468612
   4 C :   -0.257143
   5 H :    0.185201
   6 H :    0.174988
   7 C :    0.076915
   8 N :   -0.376414
   9 C :    0.078352
  10 H :    0.175504
  11 N :   -0.342251
  12 C :   -0.095726
  13 H :    0.148539
  14 H :    0.322567
  15 H :    0.424168
  16 H :    0.215925
  17 H :    0.418346
  18 H :    0.394084
  19 N :   -0.408519
  20 C :   -0.021773
  21 C :    0.405598
  22 O :   -0.491859
  23 C :   -0.243673
  24 C :   -0.243571
  25 C :   -0.243830
  26 C :   -0.122117
  27 N :   -0.496732
  28 H :    0.175653
  29 H :    0.137283
  30 H :    0.161621
  31 H :    0.138180
  32 H :    0.130607
  33 H :    0.147631
  34 H :    0.147669
  35 H :    0.186189
  36 H :    0.185913
  37 H :    0.392568
  38 H :    0.388013
  39 H :    0.390543
  40 H :    0.299529
  41 N :   -0.409207
  42 C :   -0.021064
  43 C :    0.405091
  44 O :   -0.488700
  45 H :    0.178259
  46 C :   -0.058700
  47 H :    0.162304
  48 H :    0.140967
  49 O :   -0.538214
  50 H :    0.329154
  51 H :    0.293978
  52 N :   -0.408691
  53 C :   -0.013309
  54 C :    0.404260
  55 O :   -0.486643
  56 C :   -0.238767
  57 H :    0.164110
  58 H :    0.141373
  59 C :   -0.038185
  60 C :   -0.126345
  61 H :    0.153443
  62 C :   -0.164777
  63 H :    0.154895
  64 C :    0.171082
  65 C :   -0.180449
  66 H :    0.153673
  67 C :   -0.133124
  68 H :    0.152588
  69 O :   -0.518848
  70 H :    0.355902
  71 H :    0.172711
  72 H :    0.295523
  73 N :   -0.407957
  74 C :   -0.017827
  75 C :    0.403569
  76 O :   -0.481307
  77 C :   -0.241809
  78 C :   -0.258482
  79 S :   -0.090293
  80 C :   -0.395482
  81 H :    0.175641
  82 H :    0.140780
  83 H :    0.164827
  84 H :    0.149184
  85 H :    0.132972
  86 H :    0.146123
  87 H :    0.151494
  88 H :    0.146420
  89 H :    0.288961
  90 N :   -0.410840
  91 C :   -0.020507
  92 C :    0.405829
  93 O :   -0.485611
  94 H :    0.177673
  95 C :   -0.058148
  96 H :    0.162342
  97 H :    0.140390
  98 O :   -0.537131
  99 H :    0.327639
 100 H :    0.288014
 101 N :   -0.407582
 102 C :   -0.018752
 103 C :    0.406383
 104 O :   -0.496937
 105 C :   -0.241926
 106 C :   -0.257978
 107 S :   -0.089960
 108 C :   -0.395598
 109 H :    0.175960
 110 H :    0.140903
 111 H :    0.164972
 112 H :    0.149422
 113 H :    0.132211
 114 H :    0.146692
 115 H :    0.151355
 116 H :    0.146314
 117 H :    0.292565
 118 N :   -0.411668
 119 C :   -0.143368
 120 C :    0.393788
 121 O :   -0.505012
 122 H :    0.171068
 123 H :    0.171705
 124 H :    0.283716
 125 N :   -0.415119
 126 C :   -0.031530
 127 C :    0.371729
 128 O :   -0.623323
 129 C :   -0.277315
 130 C :    0.369331
 131 O :   -0.618007
 132 O :   -0.710389
 133 H :    0.140013
 134 H :    0.127329
 135 H :    0.145684
 136 H :    0.278690
 137 O :   -0.671108
Sum of atomic charges:   -0.0000000

LOEWDIN ATOMIC CHARGES
----------------------
   0 N :   -0.189700
   1 C :    0.009351
   2 C :    0.312987
   3 O :   -0.403526
   4 C :   -0.157358
   5 H :    0.126100
   6 H :    0.118542
   7 C :    0.028766
   8 N :   -0.155083
   9 C :    0.036487
  10 H :    0.109554
  11 N :   -0.259552
  12 C :   -0.099363
  13 H :    0.092976
  14 H :    0.231718
  15 H :    0.318276
  16 H :    0.143711
  17 H :    0.323201
  18 H :    0.311478
  19 N :   -0.240382
  20 C :    0.006295
  21 C :    0.305382
  22 O :   -0.427184
  23 C :   -0.151320
  24 C :   -0.143879
  25 C :   -0.145095
  26 C :   -0.041478
  27 N :   -0.112108
  28 H :    0.110269
  29 H :    0.084472
  30 H :    0.104803
  31 H :    0.085146
  32 H :    0.082388
  33 H :    0.092245
  34 H :    0.092335
  35 H :    0.118151
  36 H :    0.118055
  37 H :    0.287657
  38 H :    0.283974
  39 H :    0.285701
  40 H :    0.215076
  41 N :   -0.239501
  42 C :    0.002733
  43 C :    0.304795
  44 O :   -0.423865
  45 H :    0.114469
  46 C :   -0.001756
  47 H :    0.101399
  48 H :    0.083414
  49 O :   -0.403697
  50 H :    0.245664
  51 H :    0.211050
  52 N :   -0.238547
  53 C :    0.011769
  54 C :    0.304494
  55 O :   -0.420639
  56 C :   -0.151276
  57 H :    0.110283
  58 H :    0.090722
  59 C :   -0.027952
  60 C :   -0.074882
  61 H :    0.098394
  62 C :   -0.128693
  63 H :    0.100482
  64 C :    0.141598
  65 C :   -0.143900
  66 H :    0.099702
  67 C :   -0.082132
  68 H :    0.097883
  69 O :   -0.363965
  70 H :    0.266276
  71 H :    0.110286
  72 H :    0.210820
  73 N :   -0.239803
  74 C :    0.008106
  75 C :    0.302286
  76 O :   -0.417194
  77 C :   -0.151183
  78 C :   -0.157626
  79 S :   -0.076598
  80 C :   -0.254122
  81 H :    0.112792
  82 H :    0.089365
  83 H :    0.109622
  84 H :    0.094550
  85 H :    0.085152
  86 H :    0.095158
  87 H :    0.102700
  88 H :    0.095330
  89 H :    0.206465
  90 N :   -0.242628
  91 C :    0.003201
  92 C :    0.305762
  93 O :   -0.419440
  94 H :    0.114019
  95 C :   -0.001367
  96 H :    0.101447
  97 H :    0.082998
  98 O :   -0.403053
  99 H :    0.244424
 100 H :    0.206676
 101 N :   -0.238925
 102 C :    0.007329
 103 C :    0.304937
 104 O :   -0.432642
 105 C :   -0.151290
 106 C :   -0.157300
 107 S :   -0.076303
 108 C :   -0.254193
 109 H :    0.113043
 110 H :    0.089450
 111 H :    0.109749
 112 H :    0.094721
 113 H :    0.085002
 114 H :    0.095581
 115 H :    0.102598
 116 H :    0.095253
 117 H :    0.208943
 118 N :   -0.239275
 119 C :   -0.081348
 120 C :    0.299594
 121 O :   -0.440663
 122 H :    0.111315
 123 H :    0.111631
 124 H :    0.203243
 125 N :   -0.244296
 126 C :   -0.009992
 127 C :    0.275931
 128 O :   -0.555212
 129 C :   -0.198664
 130 C :    0.278433
 131 O :   -0.547886
 132 O :   -0.686519
 133 H :    0.085848
 134 H :    0.082752
 135 H :    0.097565
 136 H :    0.197642
 137 O :   -0.647590

  Mayer bond orders larger than 0.100000
B(  0-N ,  1-C ) :   0.9142 B(  0-N , 15-H ) :   0.7806 B(  0-N , 17-H ) :   0.7875
B(  0-N , 18-H ) :   0.8130 B(  1-C ,  2-C ) :   0.9499 B(  1-C ,  4-C ) :   0.9772
B(  1-C , 16-H ) :   0.9247 B(  2-C ,  3-O ) :   1.7460 B(  2-C , 19-N ) :   1.1858
B(  3-O , 19-N ) :   0.1494 B(  4-C ,  5-H ) :   0.9482 B(  4-C ,  6-H ) :   0.9437
B(  4-C ,  7-C ) :   1.0190 B(  7-C ,  8-N ) :   1.1679 B(  7-C ,  9-C ) :   0.1135
B(  7-C , 12-C ) :   1.5911 B(  8-N ,  9-C ) :   1.1981 B(  8-N , 14-H ) :   0.8741
B(  9-C , 10-H ) :   0.9433 B(  9-C , 11-N ) :   1.5987 B( 11-N , 12-C ) :   1.2623
B( 12-C , 13-H ) :   0.9589 B( 19-N , 20-C ) :   0.9643 B( 19-N , 40-H ) :   0.8738
B( 20-C , 21-C ) :   0.9529 B( 20-C , 23-C ) :   0.9806 B( 20-C , 28-H ) :   0.9363
B( 21-C , 22-O ) :   1.7304 B( 21-C , 41-N ) :   1.1862 B( 22-O , 41-N ) :   0.1529
B( 23-C , 24-C ) :   1.0059 B( 23-C , 29-H ) :   0.9649 B( 23-C , 30-H ) :   0.9472
B( 24-C , 25-C ) :   1.0040 B( 24-C , 31-H ) :   0.9638 B( 24-C , 32-H ) :   0.9615
B( 25-C , 26-C ) :   1.0025 B( 25-C , 33-H ) :   0.9610 B( 25-C , 34-H ) :   0.9610
B( 26-C , 27-N ) :   0.9002 B( 26-C , 35-H ) :   0.9481 B( 26-C , 36-H ) :   0.9485
B( 27-N , 37-H ) :   0.8345 B( 27-N , 38-H ) :   0.8373 B( 27-N , 39-H ) :   0.8351
B( 41-N , 42-C ) :   0.9685 B( 41-N , 51-H ) :   0.8755 B( 42-C , 43-C ) :   0.9523
B( 42-C , 45-H ) :   0.9320 B( 42-C , 46-C ) :   0.9792 B( 43-C , 44-O ) :   1.7321
B( 43-C , 52-N ) :   1.1887 B( 44-O , 52-N ) :   0.1515 B( 46-C , 47-H ) :   0.9453
B( 46-C , 48-H ) :   0.9537 B( 46-C , 49-O ) :   0.9520 B( 49-O , 50-H ) :   0.8738
B( 52-N , 53-C ) :   0.9642 B( 52-N , 72-H ) :   0.8777 B( 53-C , 54-C ) :   0.9531
B( 53-C , 56-C ) :   0.9746 B( 53-C , 71-H ) :   0.9353 B( 54-C , 55-O ) :   1.7390
B( 54-C , 73-N ) :   1.1758 B( 55-O , 73-N ) :   0.1441 B( 56-C , 57-H ) :   0.9454
B( 56-C , 58-H ) :   0.9629 B( 56-C , 59-C ) :   1.0100 B( 59-C , 60-C ) :   1.4257
B( 59-C , 64-C ) :   0.1011 B( 59-C , 67-C ) :   1.4245 B( 60-C , 61-H ) :   0.9584
B( 60-C , 62-C ) :   1.4539 B( 60-C , 65-C ) :   0.1092 B( 62-C , 63-H ) :   0.9583
B( 62-C , 64-C ) :   1.3953 B( 62-C , 67-C ) :   0.1122 B( 64-C , 65-C ) :   1.3963
B( 64-C , 69-O ) :   1.0095 B( 65-C , 66-H ) :   0.9576 B( 65-C , 67-C ) :   1.4540
B( 67-C , 68-H ) :   0.9585 B( 69-O , 70-H ) :   0.8521 B( 73-N , 74-C ) :   0.9648
B( 73-N , 89-H ) :   0.8827 B( 74-C , 75-C ) :   0.9523 B( 74-C , 77-C ) :   0.9802
B( 74-C , 81-H ) :   0.9350 B( 75-C , 76-O ) :   1.7427 B( 75-C , 90-N ) :   1.1763
B( 76-O , 90-N ) :   0.1527 B( 77-C , 78-C ) :   1.0078 B( 77-C , 82-H ) :   0.9616
B( 77-C , 83-H ) :   0.9453 B( 78-C , 79-S ) :   0.9984 B( 78-C , 84-H ) :   0.9562
B( 78-C , 85-H ) :   0.9554 B( 79-S , 80-C ) :   1.0175 B( 80-C , 86-H ) :   0.9648
B( 80-C , 87-H ) :   0.9646 B( 80-C , 88-H ) :   0.9646 B( 90-N , 91-C ) :   0.9693
B( 90-N ,100-H ) :   0.8771 B( 91-C , 92-C ) :   0.9530 B( 91-C , 94-H ) :   0.9321
B( 91-C , 95-C ) :   0.9789 B( 92-C , 93-O ) :   1.7386 B( 92-C ,101-N ) :   1.1785
B( 93-O ,101-N ) :   0.1448 B( 95-C , 96-H ) :   0.9452 B( 95-C , 97-H ) :   0.9539
B( 95-C , 98-O ) :   0.9522 B( 98-O , 99-H ) :   0.8748 B(101-N ,102-C ) :   0.9650
B(101-N ,117-H ) :   0.8811 B(102-C ,103-C ) :   0.9527 B(102-C ,105-C ) :   0.9801
B(102-C ,109-H ) :   0.9348 B(103-C ,104-O ) :   1.7335 B(103-C ,118-N ) :   1.1849
B(104-O ,118-N ) :   0.1550 B(105-C ,106-C ) :   1.0078 B(105-C ,110-H ) :   0.9615
B(105-C ,111-H ) :   0.9452 B(106-C ,107-S ) :   0.9984 B(106-C ,112-H ) :   0.9562
B(106-C ,113-H ) :   0.9549 B(107-S ,108-C ) :   1.0175 B(108-C ,114-H ) :   0.9646
B(108-C ,115-H ) :   0.9646 B(108-C ,116-H ) :   0.9647 B(118-N ,119-C ) :   0.9712
B(118-N ,124-H ) :   0.8813 B(119-C ,120-C ) :   0.9643 B(119-C ,122-H ) :   0.9408
B(119-C ,123-H ) :   0.9405 B(120-C ,121-O ) :   1.7113 B(120-C ,125-N ) :   1.2103
B(121-O ,125-N ) :   0.1601 B(125-N ,126-C ) :   0.9433 B(125-N ,136-H ) :   0.8854
B(126-C ,127-C ) :   0.9188 B(126-C ,129-C ) :   0.9880 B(126-C ,133-H ) :   0.9463
B(127-C ,128-O ) :   1.5712 B(127-C ,137-O ) :   1.4259 B(128-O ,137-O ) :   0.2310
B(129-C ,130-C ) :   0.9489 B(129-C ,134-H ) :   0.9603 B(129-C ,135-H ) :   0.9499
B(130-C ,131-O ) :   1.5867 B(130-C ,132-O ) :   1.3883 B(131-O ,132-O ) :   0.2320

Dispersion correction           -0.724800875
FINAL SINGLE POINT ENERGY     -4211.756974813871

DIPOLE MOMENT
-------------
                                X             Y             Z
Electronic contribution:     11.60855       4.24530       8.67014
Nuclear contribution   :   -108.82631     -12.76702     -56.67887
                        -----------------------------------------
Total Dipole Moment    :    -97.21776      -8.52172     -48.00873
                        -----------------------------------------
Magnitude (a.u.)       :    108.76006
Magnitude (Debye)      :    276.44611

Rotational constants in cm-1:     0.001961     0.000174     0.000161
Rotational constants in MHz :    58.790439     5.217472     4.836047

                             ****ORCA TERMINATED NORMALLY****
TOTAL RUN TIME: 0 days 0 hours 1 minutes 7 seconds 353 msec
